{"msg": "", "code": 200, "result": {"user": {"name": "Admin", "level": 4}, "data": [{"test_id": 17246, "sec_details": [{"shuffling": true, "sec_name": {"1": "Section - 1"}, "sec_questions": [{"max_marks": 1, "qid": "c67b8c178bb645cb8f8a57a89cbafe5b", "neg_marks": 0, "qtmpl": 1, "qd_id": "0", "que": {"1": {"q_option": ["Nickel", "Sodium", "Hydrogen", "Carbon"], "q_string": "In Mendeleev's periodic table, which of the following elements has no fixed position?<br>"}}, "order_sign": [0, 1]}, {"max_marks": 1, "qid": "d0f3543d73da4dbaa2626d6486338939", "neg_marks": 0, "qtmpl": 1, "qd_id": "0", "que": {"1": {"q_option": ["Alkali metals", "Alkaline earth metals", "Halogens", "Isotopes"], "q_string": "The existence of which of the following posed a challenge to Mendeleev's periodic law?"}}, "order_sign": [1, 2]}, {"max_marks": 1, "qid": "efae307895cb473eb3b487da2097de08", "neg_marks": 0, "qtmpl": 1, "qd_id": "0", "que": {"1": {"q_option": ["first and second periods", "second and third periods", "third and fourth periods", "None of these"], "q_string": "Diagonal relationship in the periodic table is shown by the elements of"}}, "order_sign": [2, 3]}, {"max_marks": 1, "qid": "c1be1fd74a5645c0805cb8793eb886e2", "neg_marks": 0, "qtmpl": 1, "qd_id": "0", "que": {"1": {"q_option": ["actinide", "lanthanide", "halogen", "inert gas"], "q_string": "Man-made elements belong to _____ series."}}, "order_sign": [3, 4]}, {"max_marks": 1, "qid": "429733090f6647409b546b1e1e0dfafc", "neg_marks": 0, "qtmpl": 1, "qd_id": "0", "que": {"1": {"q_option": ["1A", "3A", "6A", "7A"], "q_string": "In which group of the periodic table will the element with atomic number Z = 17 be present?"}}, "order_sign": [4, 5]}, {"max_marks": 1, "qid": "acc682fd47dc48aeb35c61029576b831", "neg_marks": 0, "qtmpl": 1, "qd_id": "0", "que": {"1": {"q_option": ["alkali metals", "alkaline earth metals", "halogens", "noble gases"], "q_string": "The elements with atomic numbers 4, 12, 20, 38 and 56 belong to the group of"}}, "order_sign": [5, 6]}, {"max_marks": 1, "qid": "15e1053846534cdda1ce06dc5d147420", "neg_marks": 0, "qtmpl": 1, "qd_id": "0", "que": {"1": {"q_option": ["s &lt; p &lt; d &lt; f", "s &gt; p &gt; d &gt; f", "s &lt; d &lt; p &lt; f", "s &gt; d &gt; p &gt; f"], "q_string": "The correct order of ionisation energies is"}}, "order_sign": [6, 7]}, {"max_marks": 1, "qid": "55a67c459f564d44a8d4514bcb0d6c5c", "neg_marks": 0, "qtmpl": 1, "qd_id": "0", "que": {"1": {"q_option": ["p", "s", "f", "d"], "q_string": "The element with atomic number 36 belongs to ______ block in the periodic table."}}, "order_sign": [7, 8]}, {"max_marks": 1, "qid": "adf4ba76dbd741aca88be94b3c59fc31", "neg_marks": 0, "qtmpl": 1, "qd_id": "0", "que": {"1": {"q_option": ["ionization potential", "atomic mass", "atomic number", "atomic volume"], "q_string": "The modern periodic law states that the properties of elements are periodic functions of"}}, "order_sign": [8, 9]}, {"max_marks": 1, "qid": "75b6683d8fc64248b4c5cc1880cbd59e", "neg_marks": 0, "qtmpl": 1, "qd_id": "0", "que": {"1": {"q_option": ["Al &gt; Mg &gt; Na", "Mg &gt; Na &gt; Al", "Al &gt; Na &gt; Mg", "Na &gt; Mg &gt; Al"], "q_string": "The correct order of radii of Na, Mg and Al is"}}, "order_sign": [9, 10]}, {"max_marks": 1, "qid": "a82bd51ce63b41a5a17a0da59e7ac6d1", "neg_marks": 0, "qtmpl": 1, "qd_id": "0", "que": {"1": {"q_option": ["- 10.2 eV", "- 5.1 eV", "1.55 eV", "2.55 eV"], "q_string": "The first ionisation potential of Na is 5.1 eV. The value of electron gain enthalpy of Na<sup>+ </sup>will be"}}, "order_sign": [10, 11]}, {"max_marks": 1, "qid": "35b62e345dc344f29bbdca8ee1fe1564", "neg_marks": 0, "qtmpl": 1, "qd_id": "0", "que": {"1": {"q_option": ["B &lt; S &lt; P &lt; F", "F &lt; S &lt; P &lt; B", "P &lt; S &lt; B &lt; F", "B &lt; P &lt; S &lt; F"], "q_string": "What is the increasing order of the first ionisation enthalpies of the elements B, P, S and F?"}}, "order_sign": [11, 12]}, {"max_marks": 1, "qid": "6994a97bc366464ba1bc1e78819c055c", "neg_marks": 0, "qtmpl": 1, "qd_id": "0", "que": {"1": {"q_option": ["Li &gt; Na &gt; K", "K &gt; Li &gt; Na", "Na &gt; Li &gt; K", "Li &gt; K &gt; Na"], "q_string": "Choose the correct order of the first&nbsp;ionisation energies of the corresponding elements."}}, "order_sign": [12, 13]}, {"max_marks": 1, "qid": "8afc4362f8384b4097a653498b74ffcd", "neg_marks": 0, "qtmpl": 1, "qd_id": "0", "que": {"1": {"q_option": ["Na", "B", "Al", "Mg"], "q_string": "The first, second and third ionisation energies of an atom are 737, 1451 and 7733 kJ mol<sup>-1</sup>, respectively. The element can be"}}, "order_sign": [13, 14]}, {"max_marks": 1, "qid": "5eea56bb05cd48bd9f2185fbf9fa14e5", "neg_marks": 0, "qtmpl": 1, "qd_id": "0", "que": {"1": {"q_option": ["increases one by one from IA to VIIA", "decreases one by one from IA to VIIA", "increases one by one from IA to IVA and then, decreases one by one from VA to VIIA", "decreases one by one from IA to IVA and then, increases one by one from VA to VIIA"], "q_string": "In any period, the valency of an element with respect to oxygen"}}, "order_sign": [14, 15]}], "sec_id": "4fd78eb2d795402e9baa1e931a675dd3"}], "sec_timing": false, "test_time": "1800", "disable_partial_marking": false, "test_name": "Periodic Table and Periodicity (Easy)", "test_free": false}, {"4fd78eb2d795402e9baa1e931a675dd3": {"max_marks": 15, "q_count": 15, "slug_pos": [1.0, 4.0], "dist_pos": [[1, 15, 1]], "dist_neg": [[1, 15, 0]], "slug_neg": [0.0, 1.0]}}, ["1"], {"show_custom_instruction": false, "show_calculator": false}]}, "status": true}